PROCAR lm decomposed
# of k-points:    2         # of bands: 146         # of ions:   8

 k-point    1 :    0.50000000 0.00000000 0.00000000     weight = 0.00266667

band   1 # energy  -45.11535212 # occ.  1.00000000
 
ion      s     py     pz     px    dxy    dyz    dz2    dxz    dx2    f-3    f-2    f-1     f0     f1     f2     f3    tot
  1  0.071  0.000  0.000  0.000  0.000  0.000  0.000  0.000  0.000  0.000  0.000  0.000  0.000  0.000  0.000  0.000  0.071
  2  0.071  0.000  0.000  0.000  0.000  0.000  0.000  0.000  0.000  0.000  0.000  0.000  0.000  0.000  0.000  0.000  0.071
  3  0.429  0.000  0.000  0.000  0.000  0.000  0.000  0.000  0.000  0.000  0.000  0.000  0.000  0.000  0.000  0.000  0.429
  4  0.429  0.000  0.000  0.000  0.000  0.000  0.000  0.000  0.000  0.000  0.000  0.000  0.000  0.000  0.000  0.000  0.429
  5  0.000  0.000  0.000  0.000  0.000  0.000  0.000  0.000  0.000  0.000  0.000  0.000  0.000  0.000  0.000  0.000  0.000
  6  0.000  0.000  0.000  0.000  0.000  0.000  0.000  0.000  0.000  0.000  0.000  0.000  0.000  0.000  0.000  0.000  0.000
  7  0.000  0.000  0.000  0.000  0.000  0.000  0.000  0.000  0.000  0.000  0.000  0.000  0.000  0.000  0.000  0.000  0.000
  8  0.000  0.000  0.000  0.000  0.000  0.000  0.000  0.000  0.000  0.000  0.000  0.000  0.000  0.000  0.000  0.000  0.000
tot  1.000  0.000  0.000  0.000  0.000  0.000  0.000  0.000  0.000  0.000  0.000  0.000  0.000  0.000  0.000  0.000  1.000

  1 -0.041  0.000  0.000 -0.000 -0.000 -0.000  0.000 -0.000  0.000  0.000  0.000  0.000  0.000 -0.000  0.000 -0.000 -0.041
  2 -0.041  0.000  0.000 -0.000 -0.000 -0.000  0.000 -0.000  0.000  0.000  0.000  0.000  0.000 -0.000  0.000 -0.000 -0.041
  3 -0.248  0.000  0.000 -0.000 -0.000 -0.000  0.000 -0.000  0.000  0.000 -0.000  0.000  0.000 -0.000 -0.000 -0.000 -0.248
  4 -0.248  0.000  0.000 -0.000 -0.000 -0.000  0.000 -0.000  0.000  0.000  0.000  0.000  0.000 -0.000 -0.000 -0.000 -0.248
  5 -0.000  0.000  0.000 -0.000  0.000 -0.000 -0.000  0.000 -0.000  0.000  0.000  0.000  0.000  0.000  0.000  0.000 -0.000
  6 -0.000  0.000  0.000 -0.000  0.000 -0.000 -0.000  0.000 -0.000  0.000  0.000  0.000  0.000  0.000  0.000  0.000 -0.000
  7 -0.000  0.000  0.000 -0.000  0.000 -0.000 -0.000  0.000 -0.000  0.000  0.000  0.000  0.000  0.000  0.000  0.000 -0.000
  8 -0.000  0.000  0.000 -0.000  0.000 -0.000 -0.000  0.000 -0.000  0.000  0.000  0.000  0.000  0.000  0.000  0.000 -0.000
tot -0.577  0.000  0.000 -0.000 -0.000 -0.000 -0.000 -0.000 -0.000  0.000  0.000  0.000  0.000 -0.000  0.000 -0.000 -0.577

  1 -0.041  0.000 -0.000 -0.000 -0.000 -0.000  0.000 -0.000  0.000  0.000 -0.000  0.000 -0.000 -0.000  0.000 -0.000 -0.041
  2 -0.041  0.000 -0.000 -0.000 -0.000 -0.000  0.000 -0.000  0.000  0.000 -0.000  0.000 -0.000 -0.000 -0.000 -0.000 -0.041
  3 -0.248  0.000 -0.000 -0.000 -0.000 -0.000  0.000 -0.000  0.000  0.000 -0.000  0.000 -0.000 -0.000  0.000 -0.000 -0.248
  4 -0.248  0.000 -0.000 -0.000 -0.000 -0.000  0.000 -0.000  0.000  0.000 -0.000  0.000 -0.000 -0.000  0.000 -0.000 -0.248
  5 -0.000  0.000 -0.000 -0.000  0.000 -0.000 -0.000 -0.000 -0.000  0.000  0.000  0.000  0.000  0.000  0.000  0.000 -0.000
  6 -0.000  0.000 -0.000 -0.000  0.000 -0.000 -0.000 -0.000 -0.000  0.000  0.000  0.000  0.000  0.000  0.000  0.000 -0.000
  7 -0.000  0.000 -0.000 -0.000  0.000 -0.000 -0.000 -0.000 -0.000  0.000  0.000  0.000  0.000  0.000  0.000  0.000 -0.000
  8 -0.000  0.000 -0.000 -0.000  0.000 -0.000 -0.000 -0.000 -0.000  0.000  0.000  0.000  0.000  0.000  0.000  0.000 -0.000
tot -0.577  0.000 -0.000 -0.000 -0.000 -0.000 -0.000 -0.000 -0.000  0.000 -0.000  0.000 -0.000 -0.000 -0.000 -0.000 -0.577

  1 -0.041 -0.000  0.000 -0.000 -0.000 -0.000  0.000 -0.000  0.000 -0.000 -0.000 -0.000  0.000 -0.000 -0.000 -0.000 -0.041
  2 -0.041 -0.000  0.000 -0.000 -0.000 -0.000  0.000 -0.000  0.000 -0.000 -0.000 -0.000  0.000 -0.000 -0.000 -0.000 -0.041
  3 -0.248 -0.000  0.000 -0.000 -0.000 -0.000  0.000 -0.000  0.000 -0.000  0.000 -0.000  0.000 -0.000 -0.000 -0.000 -0.248
  4 -0.248 -0.000  0.000 -0.000 -0.000 -0.000  0.000 -0.000  0.000 -0.000 -0.000 -0.000  0.000 -0.000 -0.000 -0.000 -0.248
  5 -0.000 -0.000  0.000 -0.000 -0.000 -0.000 -0.000  0.000 -0.000  0.000  0.000  0.000  0.000  0.000  0.000  0.000 -0.000
  6 -0.000 -0.000  0.000 -0.000 -0.000 -0.000 -0.000  0.000 -0.000  0.000  0.000  0.000  0.000  0.000  0.000  0.000 -0.000
  7 -0.000 -0.000  0.000 -0.000 -0.000 -0.000 -0.000  0.000 -0.000  0.000  0.000  0.000  0.000  0.000  0.000  0.000 -0.000
  8 -0.000 -0.000  0.000 -0.000 -0.000 -0.000 -0.000  0.000 -0.000  0.000  0.000  0.000  0.000  0.000  0.000  0.000 -0.000
tot -0.577 -0.000  0.000 -0.000 -0.000 -0.000 -0.000 -0.000 -0.000 -0.000 -0.000 -0.000  0.000 -0.000 -0.000 -0.000 -0.577

 
band   2 # energy  -45.11535212 # occ.  1.00000000
 
ion      s     py     pz     px    dxy    dyz    dz2    dxz    dx2    f-3    f-2    f-1     f0     f1     f2     f3    tot
  1  0.429  0.000  0.000  0.000  0.000  0.000  0.000  0.000  0.000  0.000  0.000  0.000  0.000  0.000  0.000  0.000  0.429
  2  0.429  0.000  0.000  0.000  0.000  0.000  0.000  0.000  0.000  0.000  0.000  0.000  0.000  0.000  0.000  0.000  0.429
  3  0.071  0.000  0.000  0.000  0.000  0.000  0.000  0.000  0.000  0.000  0.000  0.000  0.000  0.000  0.000  0.000  0.071
  4  0.071  0.000  0.000  0.000  0.000  0.000  0.000  0.000  0.000  0.000  0.000  0.000  0.000  0.000  0.000  0.000  0.071
  5  0.000  0.000  0.000  0.000  0.000  0.000  0.000  0.000  0.000  0.000  0.000  0.000  0.000  0.000  0.000  0.000  0.000
  6  0.000  0.000  0.000  0.000  0.000  0.000  0.000  0.000  0.000  0.000  0.000  0.000  0.000  0.000  0.000  0.000  0.000
  7  0.000  0.000  0.000  0.000  0.000  0.000  0.000  0.000  0.000  0.000  0.000  0.000  0.000  0.000  0.000  0.000  0.000
  8  0.000  0.000  0.000  0.000  0.000  0.000  0.000  0.000  0.000  0.000  0.000  0.000  0.000  0.000  0.000  0.000  0.000
tot  1.000  0.000  0.000  0.000  0.000  0.000  0.000  0.000  0.000  0.000  0.000  0.000  0.000  0.000  0.000  0.000  1.000

  1 -0.248  0.000  0.000 -0.000 -0.000 -0.000  0.000 -0.000  0.000  0.000  0.000  0.000  0.000 -0.000  0.000 -0.000 -0.248
  2 -0.248  0.000  0.000 -0.000 -0.000 -0.000  0.000 -0.000  0.000  0.000  0.000  0.000  0.000 -0.000 -0.000 -0.000 -0.248
  3 -0.041  0.000  0.000 -0.000 -0.000 -0.000  0.000 -0.000  0.000  0.000 -0.000  0.000  0.000 -0.000 -0.000 -0.000 -0.041
  4 -0.041  0.000  0.000 -0.000 -0.000 -0.000  0.000 -0.000  0.000  0.000 -0.000  0.000  0.000 -0.000  0.000 -0.000 -0.041
  5 -0.000  0.000  0.000 -0.000  0.000 -0.000 -0.000  0.000 -0.000  0.000  0.000  0.000  0.000  0.000  0.000  0.000 -0.000
  6 -0.000  0.000  0.000 -0.000  0.000 -0.000 -0.000  0.000 -0.000  0.000  0.000  0.000  0.000  0.000  0.000  0.000 -0.000
  7 -0.000  0.000  0.000 -0.000  0.000 -0.000 -0.000  0.000 -0.000  0.000  0.000  0.000  0.000  0.000  0.000  0.000 -0.000
  8 -0.000  0.000  0.000 -0.000  0.000 -0.000 -0.000  0.000 -0.000  0.000  0.000  0.000  0.000  0.000  0.000  0.000 -0.000
tot -0.577  0.000  0.000 -0.000 -0.000 -0.000 -0.000 -0.000 -0.000  0.000  0.000  0.000  0.000 -0.000  0.000 -0.000 -0.577

  1 -0.248  0.000 -0.000 -0.000 -0.000 -0.000  0.000 -0.000  0.000  0.000 -0.000  0.000 -0.000 -0.000 -0.000 -0.000 -0.248
  2 -0.248  0.000 -0.000 -0.000 -0.000 -0.000  0.000 -0.000  0.000  0.000 -0.000  0.000 -0.000 -0.000 -0.000 -0.000 -0.248
  3 -0.041  0.000 -0.000 -0.000 -0.000 -0.000  0.000 -0.000  0.000  0.000 -0.000  0.000 -0.000 -0.000 -0.000 -0.000 -0.041
  4 -0.041  0.000 -0.000 -0.000 -0.000 -0.000  0.000 -0.000  0.000  0.000 -0.000  0.000 -0.000 -0.000 -0.000 -0.000 -0.041
  5 -0.000  0.000 -0.000 -0.000  0.000 -0.000 -0.000 -0.000 -0.000  0.000  0.000  0.000  0.000  0.000  0.000  0.000 -0.000
  6 -0.000  0.000 -0.000 -0.000  0.000 -0.000 -0.000 -0.000 -0.000  0.000  0.000  0.000  0.000  0.000  0.000  0.000 -0.000
  7 -0.000  0.000 -0.000 -0.000  0.000 -0.000 -0.000 -0.000 -0.000  0.000  0.000  0.000  0.000  0.000  0.000  0.000 -0.000
  8 -0.000  0.000 -0.000 -0.000  0.000 -0.000 -0.000 -0.000 -0.000  0.000  0.000  0.000  0.000  0.000  0.000  0.000 -0.000
tot -0.577  0.000 -0.000 -0.000 -0.000 -0.000 -0.000 -0.000 -0.000  0.000 -0.000  0.000 -0.000 -0.000 -0.000 -0.000 -0.577

  1 -0.248 -0.000  0.000 -0.000 -0.000 -0.000  0.000 -0.000  0.000 -0.000  0.000 -0.000  0.000 -0.000 -0.000 -0.000 -0.248
  2 -0.248 -0.000  0.000 -0.000 -0.000 -0.000  0.000 -0.000  0.000 -0.000  0.000 -0.000  0.000 -0.000 -0.000 -0.000 -0.248
  3 -0.041 -0.000  0.000 -0.000 -0.000 -0.000  0.000 -0.000  0.000 -0.000 -0.000 -0.000  0.000 -0.000 -0.000 -0.000 -0.041
  4 -0.041 -0.000  0.000 -0.000 -0.000 -0.000  0.000 -0.000  0.000 -0.000 -0.000 -0.000  0.000 -0.000 -0.000 -0.000 -0.041
  5 -0.000 -0.000  0.000 -0.000 -0.000 -0.000 -0.000  0.000 -0.000  0.000  0.000  0.000  0.000  0.000  0.000  0.000 -0.000
  6 -0.000 -0.000  0.000 -0.000 -0.000 -0.000 -0.000  0.000 -0.000  0.000  0.000  0.000  0.000  0.000  0.000  0.000 -0.000
  7 -0.000 -0.000  0.000 -0.000 -0.000 -0.000 -0.000  0.000 -0.000  0.000  0.000  0.000  0.000  0.000  0.000  0.000 -0.000
  8 -0.000 -0.000  0.000 -0.000 -0.000 -0.000 -0.000  0.000 -0.000  0.000  0.000  0.000  0.000  0.000  0.000  0.000 -0.000
tot -0.577 -0.000  0.000 -0.000 -0.000 -0.000 -0.000 -0.000 -0.000 -0.000 -0.000 -0.000  0.000 -0.000 -0.000 -0.000 -0.577

 
band   3 # energy  -45.11340523 # occ.  1.00000000
 
ion      s     py     pz     px    dxy    dyz    dz2    dxz    dx2    f-3    f-2    f-1     f0     f1     f2     f3    tot
  1  0.131  0.000  0.000  0.000  0.000  0.000  0.000  0.000  0.000  0.000  0.000  0.000  0.000  0.000  0.000  0.000  0.131
  2  0.131  0.000  0.000  0.000  0.000  0.000  0.000  0.000  0.000  0.000  0.000  0.000  0.000  0.000  0.000  0.000  0.131
  3  0.369  0.000  0.000  0.000  0.000  0.000  0.000  0.000  0.000  0.000  0.000  0.000  0.000  0.000  0.000  0.000  0.369
  4  0.369  0.000  0.000  0.000  0.000  0.000  0.000  0.000  0.000  0.000  0.000  0.000  0.000  0.000  0.000  0.000  0.369
  5  0.000  0.000  0.000  0.000  0.000  0.000  0.000  0.000  0.000  0.000  0.000  0.000  0.000  0.000  0.000  0.000  0.000
  6  0.000  0.000  0.000  0.000  0.000  0.000  0.000  0.000  0.000  0.000  0.000  0.000  0.000  0.000  0.000  0.000  0.000
  7  0.000  0.000  0.000  0.000  0.000  0.000  0.000  0.000  0.000  0.000  0.000  0.000  0.000  0.000  0.000  0.000  0.000
  8  0.000  0.000  0.000  0.000  0.000  0.000  0.000  0.000  0.000  0.000  0.000  0.000  0.000  0.000  0.000  0.000  0.000
tot  1.000  0.000  0.000  0.000  0.000  0.000  0.000  0.000  0.000  0.000  0.000  0.000  0.000  0.000  0.000  0.000  1.000

  1 -0.075  0.000  0.000  0.000 -0.000 -0.000  0.000 -0.000  0.000  0.000  0.000  0.000  0.000 -0.000  0.000 -0.000 -0.075
  2 -0.075  0.000  0.000  0.000 -0.000 -0.000  0.000 -0.000  0.000  0.000  0.000  0.000  0.000 -0.000 -0.000 -0.000 -0.075
  3 -0.213  0.000  0.000  0.000 -0.000 -0.000  0.000 -0.000  0.000  0.000  0.000  0.000  0.000 -0.000 -0.000 -0.000 -0.213
  4 -0.213  0.000  0.000  0.000 -0.000 -0.000  0.000 -0.000  0.000  0.000  0.000  0.000  0.000 -0.000  0.000 -0.000 -0.213
  5  0.000  0.000  0.000 -0.000  0.000 -0.000 -0.000  0.000 -0.000  0.000  0.000  0.000  0.000  0.000  0.000  0.000 -0.000
  6  0.000  0.000  0.000 -0.000  0.000 -0.000 -0.000  0.000 -0.000  0.000  0.000  0.000  0.000  0.000  0.000  0.000 -0.000
  7  0.000  0.000  0.000 -0.000  0.000 -0.000 -0.000  0.000 -0.000  0.000  0.000  0.000  0.000  0.000  0.000  0.000 -0.000
  8  0.000  0.000  0.000 -0.000  0.000 -0.000 -0.000  0.000 -0.000  0.000  0.000  0.000  0.000  0.000  0.000  0.000 -0.000
tot -0.577  0.000  0.000 -0.000 -0.000 -0.000 -0.000 -0.000 -0.000  0.000  0.000  0.000  0.000 -0.000 -0.000 -0.000 -0.577

  1 -0.075 -0.000 -0.000  0.000 -0.000 -0.000  0.000 -0.000  0.000  0.000  0.000  0.000 -0.000 -0.000 -0.000 -0.000 -0.075
  2 -0.075 -0.000 -0.000  0.000 -0.000 -0.000  0.000 -0.000  0.000  0.000  0.000  0.000 -0.000 -0.000 -0.000 -0.000 -0.075
  3 -0.213 -0.000 -0.000  0.000 -0.000 -0.000  0.000 -0.000  0.000  0.000 -0.000  0.000 -0.000 -0.000 -0.000 -0.000 -0.213
  4 -0.213 -0.000 -0.000  0.000 -0.000 -0.000  0.000 -0.000  0.000  0.000  0.000  0.000 -0.000 -0.000 -0.000 -0.000 -0.213
  5  0.000  0.000 -0.000 -0.000  0.000  0.000 -0.000 -0.000 -0.000  0.000  0.000  0.000  0.000  0.000  0.000  0.000 -0.000
  6  0.000  0.000 -0.000 -0.000  0.000  0.000 -0.000 -0.000 -0.000  0.000  0.000  0.000  0.000  0.000  0.000  0.000 -0.000
  7  0.000  0.000 -0.000 -0.000  0.000  0.000 -0.000 -0.000 -0.000  0.000  0.000  0.000  0.000  0.000  0.000  0.000 -0.000
  8  0.000  0.000 -0.000 -0.000  0.000  0.000 -0.000 -0.000 -0.000  0.000  0.000  0.000  0.000  0.000  0.000  0.000 -0.000
tot -0.577  0.000 -0.000 -0.000 -0.000 -0.000 -0.000 -0.000 -0.000  0.000  0.000  0.000 -0.000 -0.000 -0.000 -0.000 -0.577

  1 -0.075 -0.000 -0.000  0.000 -0.000 -0.000  0.000 -0.000  0.000 -0.000 -0.000 -0.000  0.000 -0.000  0.000 -0.000 -0.075
  2 -0.075 -0.000 -0.000  0.000 -0.000 -0.000  0.000 -0.000  0.000 -0.000  0.000 -0.000  0.000 -0.000  0.000 -0.000 -0.075
  3 -0.213 -0.000 -0.000  0.000 -0.000 -0.000  0.000 -0.000  0.000 -0.000  0.000 -0.000  0.000 -0.000  0.000 -0.000 -0.213
  4 -0.213 -0.000 -0.000  0.000 -0.000 -0.000  0.000 -0.000  0.000 -0.000 -0.000 -0.000  0.000 -0.000  0.000 -0.000 -0.213
  5  0.000 -0.000  0.000 -0.000 -0.000  0.000 -0.000  0.000 -0.000  0.000  0.000  0.000  0.000  0.000  0.000  0.000 -0.000
  6  0.000 -0.000  0.000 -0.000 -0.000  0.000 -0.000  0.000 -0.000  0.000  0.000  0.000  0.000  0.000  0.000  0.000 -0.000
  7  0.000 -0.000  0.000 -0.000 -0.000  0.000 -0.000  0.000 -0.000  0.000  0.000  0.000  0.000  0.000  0.000  0.000 -0.000
  8  0.000 -0.000  0.000 -0.000 -0.000  0.000 -0.000  0.000 -0.000  0.000  0.000  0.000  0.000  0.000  0.000  0.000 -0.000
tot -0.577 -0.000  0.000 -0.000 -0.000 -0.000 -0.000 -0.000 -0.000 -0.000  0.000 -0.000  0.000 -0.000  0.000 -0.000 -0.577

 
band   4 # energy  -45.11340523 # occ.  1.00000000
 
ion      s     py     pz     px    dxy    dyz    dz2    dxz    dx2    f-3    f-2    f-1     f0     f1     f2     f3    tot
  1  0.369  0.000  0.000  0.000  0.000  0.000  0.000  0.000  0.000  0.000  0.000  0.000  0.000  0.000  0.000  0.000  0.369
  2  0.369  0.000  0.000  0.000  0.000  0.000  0.000  0.000  0.000  0.000  0.000  0.000  0.000  0.000  0.000  0.000  0.369
  3  0.131  0.000  0.000  0.000  0.000  0.000  0.000  0.000  0.000  0.000  0.000  0.000  0.000  0.000  0.000  0.000  0.131
  4  0.131  0.000  0.000  0.000  0.000  0.000  0.000  0.000  0.000  0.000  0.000  0.000  0.000  0.000  0.000  0.000  0.131
  5  0.000  0.000  0.000  0.000  0.000  0.000  0.000  0.000  0.000  0.000  0.000  0.000  0.000  0.000  0.000  0.000  0.000
  6  0.000  0.000  0.000  0.000  0.000  0.000  0.000  0.000  0.000  0.000  0.000  0.000  0.000  0.000  0.000  0.000  0.000
  7  0.000  0.000  0.000  0.000  0.000  0.000  0.000  0.000  0.000  0.000  0.000  0.000  0.000  0.000  0.000  0.000  0.000
  8  0.000  0.000  0.000  0.000  0.000  0.000  0.000  0.000  0.000  0.000  0.000  0.000  0.000  0.000  0.000  0.000  0.000
tot  1.000  0.000  0.000  0.000  0.000  0.000  0.000  0.000  0.000  0.000  0.000  0.000  0.000  0.000  0.000  0.000  1.000

  1 -0.213  0.000  0.000  0.000 -0.000 -0.000  0.000 -0.000  0.000  0.000 -0.000  0.000  0.000 -0.000  0.000 -0.000 -0.213
  2 -0.213  0.000  0.000  0.000 -0.000 -0.000  0.000 -0.000  0.000  0.000 -0.000  0.000  0.000 -0.000  0.000 -0.000 -0.213
  3 -0.075  0.000  0.000  0.000 -0.000 -0.000  0.000 -0.000  0.000  0.000 -0.000  0.000  0.000 -0.000 -0.000 -0.000 -0.075
  4 -0.075  0.000  0.000  0.000 -0.000 -0.000  0.000 -0.000  0.000  0.000 -0.000  0.000  0.000 -0.000  0.000 -0.000 -0.075
  5  0.000  0.000  0.000 -0.000  0.000 -0.000 -0.000  0.000 -0.000  0.000  0.000  0.000  0.000  0.000  0.000  0.000 -0.000
  6  0.000  0.000  0.000 -0.000  0.000 -0.000 -0.000  0.000 -0.000  0.000  0.000  0.000  0.000  0.000  0.000  0.000 -0.000
  7  0.000  0.000  0.000 -0.000  0.000 -0.000 -0.000  0.000 -0.000  0.000  0.000  0.000  0.000  0.000  0.000  0.000 -0.000
  8  0.000  0.000  0.000 -0.000  0.000 -0.000 -0.000  0.000 -0.000  0.000  0.000  0.000  0.000  0.000  0.000  0.000 -0.000
tot -0.577  0.000  0.000 -0.000 -0.000 -0.000 -0.000 -0.000 -0.000  0.000 -0.000  0.000  0.000 -0.000  0.000 -0.000 -0.577

  1 -0.213 -0.000 -0.000  0.000 -0.000 -0.000  0.000 -0.000  0.000  0.000  0.000  0.000 -0.000 -0.000 -0.000 -0.000 -0.213
  2 -0.213 -0.000 -0.000  0.000 -0.000 -0.000  0.000 -0.000  0.000  0.000  0.000  0.000 -0.000 -0.000 -0.000 -0.000 -0.213
  3 -0.075 -0.000 -0.000  0.000 -0.000 -0.000  0.000 -0.000  0.000  0.000  0.000  0.000 -0.000 -0.000 -0.000 -0.000 -0.075
  4 -0.075 -0.000 -0.000  0.000 -0.000 -0.000  0.000 -0.000  0.000  0.000  0.000  0.000 -0.000 -0.000 -0.000 -0.000 -0.075
  5  0.000  0.000 -0.000 -0.000  0.000  0.000 -0.000 -0.000 -0.000  0.000  0.000  0.000  0.000  0.000  0.000  0.000 -0.000
  6  0.000  0.000 -0.000 -0.000  0.000  0.000 -0.000 -0.000 -0.000  0.000  0.000  0.000  0.000  0.000  0.000  0.000 -0.000
  7  0.000  0.000 -0.000 -0.000  0.000  0.000 -0.000 -0.000 -0.000  0.000  0.000  0.000  0.000  0.000  0.000  0.000 -0.000
  8  0.000  0.000 -0.000 -0.000  0.000  0.000 -0.000 -0.000 -0.000  0.000  0.000  0.000  0.000  0.000  0.000  0.000 -0.000
tot -0.577  0.000 -0.000 -0.000 -0.000 -0.000 -0.000 -0.000 -0.000  0.000  0.000  0.000 -0.000 -0.000 -0.000 -0.000 -0.577

  1 -0.213 -0.000 -0.000  0.000 -0.000 -0.000  0.000 -0.000  0.000 -0.000  0.000 -0.000  0.000 -0.000  0.000 -0.000 -0.213
  2 -0.213 -0.000 -0.000  0.000 -0.000 -0.000  0.000 -0.000  0.000 -0.000  0.000 -0.000  0.000 -0.000  0.000 -0.000 -0.213
  3 -0.075 -0.000 -0.000  0.000 -0.000 -0.000  0.000 -0.000  0.000 -0.000  0.000 -0.000  0.000 -0.000  0.000 -0.000 -0.075
  4 -0.075 -0.000 -0.000  0.000 -0.000 -0.000  0.000 -0.000  0.000 -0.000  0.000 -0.000  0.000 -0.000  0.000 -0.000 -0.075
  5  0.000 -0.000  0.000 -0.000 -0.000  0.000 -0.000  0.000 -0.000  0.000  0.000  0.000  0.000  0.000  0.000  0.000 -0.000
  6  0.000 -0.000  0.000 -0.000 -0.000  0.000 -0.000  0.000 -0.000  0.000  0.000  0.000  0.000  0.000  0.000  0.000 -0.000
  7  0.000 -0.000  0.000 -0.000 -0.000  0.000 -0.000  0.000 -0.000  0.000  0.000  0.000  0.000  0.000  0.000  0.000 -0.000
  8  0.000 -0.000  0.000 -0.000 -0.000  0.000 -0.000  0.000 -0.000  0.000  0.000  0.000  0.000  0.000  0.000  0.000 -0.000
tot -0.577 -0.000  0.000 -0.000 -0.000 -0.000 -0.000 -0.000 -0.000 -0.000  0.000 -0.000  0.000 -0.000  0.000 -0.000 -0.577

 
band   5 # energy  -44.64173965 # occ.  1.00000000
 
ion      s     py     pz     px    dxy    dyz    dz2    dxz    dx2    f-3    f-2    f-1     f0     f1     f2     f3    tot
  1  0.022  0.000  0.000  0.000  0.000  0.000  0.000  0.000  0.000  0.000  0.000  0.000  0.000  0.000  0.000  0.000  0.022
  2  0.022  0.000  0.000  0.000  0.000  0.000  0.000  0.000  0.000  0.000  0.000  0.000  0.000  0.000  0.000  0.000  0.022
  3  0.479  0.000  0.000  0.000  0.000  0.000  0.000  0.000  0.000  0.000  0.000  0.000  0.000  0.000  0.000  0.000  0.479
  4  0.479  0.000  0.000  0.000  0.000  0.000  0.000  0.000  0.000  0.000  0.000  0.000  0.000  0.000  0.000  0.000  0.479
  5  0.000  0.000  0.000  0.000  0.000  0.000  0.000  0.000  0.000  0.000  0.000  0.000  0.000  0.000  0.000  0.000  0.000
  6  0.000  0.000  0.000  0.000  0.000  0.000  0.000  0.000  0.000  0.000  0.000  0.000  0.000  0.000  0.000  0.000  0.000
  7  0.000  0.000  0.000  0.000  0.000  0.000  0.000  0.000  0.000  0.000  0.000  0.000  0.000  0.000  0.000  0.000  0.000
  8  0.000  0.000  0.000  0.000  0.000  0.000  0.000  0.000  0.000  0.000  0.000  0.000  0.000  0.000  0.000  0.000  0.000
tot  1.001  0.000  0.000  0.000  0.000  0.000  0.000  0.000  0.000  0.000  0.000  0.000  0.000  0.000  0.000  0.000  1.001

  1  0.013 -0.000 -0.000  0.000  0.000  0.000 -0.000  0.000 -0.000 -0.000  0.000 -0.000 -0.000  0.000 -0.000  0.000  0.013
  2  0.013 -0.000 -0.000  0.000  0.000  0.000 -0.000  0.000 -0.000 -0.000  0.000 -0.000 -0.000  0.000 -0.000  0.000  0.013
  3  0.276 -0.000 -0.000  0.000  0.000  0.000 -0.000  0.000 -0.000 -0.000  0.000 -0.000 -0.000  0.000 -0.000  0.000  0.276
  4  0.276 -0.000 -0.000  0.000  0.000  0.000 -0.000  0.000 -0.000 -0.000  0.000 -0.000 -0.000  0.000 -0.000  0.000  0.276
  5  0.000 -0.000 -0.000  0.000 -0.000  0.000  0.000 -0.000  0.000  0.000  0.000  0.000  0.000  0.000  0.000  0.000  0.000
  6  0.000 -0.000 -0.000  0.000 -0.000  0.000  0.000 -0.000  0.000  0.000  0.000  0.000  0.000  0.000  0.000  0.000  0.000
  7  0.000 -0.000 -0.000  0.000 -0.000  0.000  0.000 -0.000  0.000  0.000  0.000  0.000  0.000  0.000  0.000  0.000  0.000
  8  0.000 -0.000 -0.000  0.000 -0.000  0.000  0.000 -0.000  0.000  0.000  0.000  0.000  0.000  0.000  0.000  0.000  0.000
tot  0.578 -0.000 -0.000  0.000  0.000  0.000  0.000  0.000  0.000 -0.000  0.000 -0.000 -0.000  0.000 -0.000  0.000  0.578

  1  0.013 -0.000  0.000  0.000  0.000  0.000 -0.000  0.000 -0.000 -0.000  0.000 -0.000  0.000  0.000  0.000  0.000  0.013
  2  0.013 -0.000  0.000  0.000  0.000  0.000 -0.000  0.000 -0.000 -0.000 -0.000 -0.000  0.000  0.000  0.000  0.000  0.013
  3  0.276 -0.000  0.000  0.000  0.000  0.000 -0.000  0.000 -0.000 -0.000 -0.000 -0.000  0.000  0.000  0.000  0.000  0.276
  4  0.276 -0.000  0.000  0.000  0.000  0.000 -0.000  0.000 -0.000 -0.000  0.000 -0.000  0.000  0.000  0.000  0.000  0.276
  5  0.000 -0.000  0.000  0.000 -0.000  0.000  0.000  0.000  0.000  0.000  0.000  0.000  0.000  0.000  0.000  0.000  0.000
  6  0.000 -0.000  0.000  0.000 -0.000  0.000  0.000  0.000  0.000  0.000  0.000  0.000  0.000  0.000  0.000  0.000  0.000
  7  0.000 -0.000  0.000  0.000 -0.000  0.000  0.000  0.000  0.000  0.000  0.000  0.000  0.000  0.000  0.000  0.000  0.000
  8  0.000 -0.000  0.000  0.000 -0.000  0.000  0.000  0.000  0.000  0.000  0.000  0.000  0.000  0.000  0.000  0.000  0.000
tot  0.578 -0.000  0.000  0.000  0.000  0.000  0.000  0.000  0.000 -0.000 -0.000 -0.000  0.000  0.000  0.000  0.000  0.578

  1  0.013  0.000 -0.000  0.000  0.000  0.000 -0.000  0.000 -0.000  0.000 -0.000  0.000 -0.000  0.000  0.000  0.000  0.013
  2  0.013  0.000 -0.000  0.000  0.000  0.000 -0.000  0.000 -0.000  0.000 -0.000  0.000 -0.000  0.000  0.000  0.000  0.013
  3  0.276  0.000 -0.000  0.000  0.000  0.000 -0.000  0.000 -0.000  0.000  0.000  0.000 -0.000  0.000  0.000  0.000  0.276
  4  0.276  0.000 -0.000  0.000  0.000  0.000 -0.000  0.000 -0.000  0.000  0.000  0.000 -0.000  0.000 -0.000  0.000  0.276
  5  0.000  0.000 -0.000  0.000  0.000  0.000  0.000 -0.000  0.000  0.000  0.000  0.000  0.000  0.000  0.000  0.000  0.000
  6  0.000  0.000 -0.000  0.000  0.000  0.000  0.000 -0.000  0.000  0.000  0.000  0.000  0.000  0.000  0.000  0.000  0.000
  7  0.000  0.000 -0.000  0.000  0.000  0.000  0.000 -0.000  0.000  0.000  0.000  0.000  0.000  0.000  0.000  0.000  0.000
  8  0.000  0.000 -0.000  0.000  0.000  0.000  0.000 -0.000  0.000  0.000  0.000  0.000  0.000  0.000  0.000  0.000  0.000
tot  0.578  0.000 -0.000  0.000  0.000  0.000  0.000  0.000  0.000  0.000 -0.000  0.000 -0.000  0.000  0.000  0.000  0.578

 
band   6 # energy  -44.64173965 # occ.  1.00000000
 
ion      s     py     pz     px    dxy    dyz    dz2    dxz    dx2    f-3    f-2    f-1     f0     f1     f2     f3    tot
  1  0.479  0.000  0.000  0.000  0.000  0.000  0.000  0.000  0.000  0.000  0.000  0.000  0.000  0.000  0.000  0.000  0.479
  2  0.479  0.000  0.000  0.000  0.000  0.000  0.000  0.000  0.000  0.000  0.000  0.000  0.000  0.000  0.000  0.000  0.479
  3  0.022  0.000  0.000  0.000  0.000  0.000  0.000  0.000  0.000  0.000  0.000  0.000  0.000  0.000  0.000  0.000  0.022
  4  0.022  0.000  0.000  0.000  0.000  0.000  0.000  0.000  0.000  0.000  0.000  0.000  0.000  0.000  0.000  0.000  0.022
  5  0.000  0.000  0.000  0.000  0.000  0.000  0.000  0.000  0.000  0.000  0.000  0.000  0.000  0.000  0.000  0.000  0.000
  6  0.000  0.000  0.000  0.000  0.000  0.000  0.000  0.000  0.000  0.000  0.000  0.000  0.000  0.000  0.000  0.000  0.000
  7  0.000  0.000  0.000  0.000  0.000  0.000  0.000  0.000  0.000  0.000  0.000  0.000  0.000  0.000  0.000  0.000  0.000
  8  0.000  0.000  0.000  0.000  0.000  0.000  0.000  0.000  0.000  0.000  0.000  0.000  0.000  0.000  0.000  0.000  0.000
tot  1.001  0.000  0.000  0.000  0.000  0.000  0.000  0.000  0.000  0.000  0.000  0.000  0.000  0.000  0.000  0.000  1.001

  1  0.276 -0.000 -0.000  0.000  0.000  0.000 -0.000  0.000 -0.000 -0.000 -0.000 -0.000 -0.000  0.000 -0.000  0.000  0.276
  2  0.276 -0.000 -0.000  0.000  0.000  0.000 -0.000  0.000 -0.000 -0.000  0.000 -0.000 -0.000  0.000 -0.000  0.000  0.276
  3  0.013 -0.000 -0.000  0.000  0.000  0.000 -0.000  0.000 -0.000 -0.000  0.000 -0.000 -0.000  0.000 -0.000  0.000  0.013
  4  0.013 -0.000 -0.000  0.000  0.000  0.000 -0.000  0.000 -0.000 -0.000  0.000 -0.000 -0.000  0.000 -0.000  0.000  0.013
  5  0.000 -0.000 -0.000  0.000 -0.000  0.000  0.000 -0.000  0.000  0.000  0.000  0.000  0.000  0.000  0.000  0.000  0.000
  6  0.000 -0.000 -0.000  0.000 -0.000  0.000  0.000 -0.000  0.000  0.000  0.000  0.000  0.000  0.000  0.000  0.000  0.000
  7  0.000 -0.000 -0.000  0.000 -0.000  0.000  0.000 -0.000  0.000  0.000  0.000  0.000  0.000  0.000  0.000  0.000  0.000
  8  0.000 -0.000 -0.000  0.000 -0.000  0.000  0.000 -0.000  0.000  0.000  0.000  0.000  0.000  0.000  0.000  0.000  0.000
tot  0.578 -0.000 -0.000  0.000  0.000  0.000  0.000  0.000  0.000 -0.000  0.000 -0.000 -0.000  0.000 -0.000  0.000  0.578

  1  0.276 -0.000  0.000  0.000  0.000  0.000 -0.000  0.000 -0.000 -0.000  0.000 -0.000  0.000  0.000  0.000  0.000  0.276
  2  0.276 -0.000  0.000  0.000  0.000  0.000 -0.000  0.000 -0.000 -0.000  0.000 -0.000  0.000  0.000  0.000  0.000  0.276
  3  0.013 -0.000  0.000  0.000  0.000  0.000 -0.000  0.000 -0.000 -0.000 -0.000 -0.000  0.000  0.000  0.000  0.000  0.013
  4  0.013 -0.000  0.000  0.000  0.000  0.000 -0.000  0.000 -0.000 -0.000 -0.000 -0.000  0.000  0.000  0.000  0.000  0.013
  5  0.000 -0.000  0.000  0.000 -0.000  0.000  0.000  0.000  0.000  0.000  0.000  0.000  0.000  0.000  0.000  0.000  0.000
  6  0.000 -0.000  0.000  0.000 -0.000  0.000  0.000  0.000  0.000  0.000  0.000  0.000  0.000  0.000  0.000  0.000  0.000
  7  0.000 -0.000  0.000  0.000 -0.000  0.000  0.000  0.000  0.000  0.000  0.000  0.000  0.000  0.000  0.000  0.000  0.000
  8  0.000 -0.000  0.000  0.000 -0.000  0.000  0.000  0.000  0.000  0.000  0.000  0.000  0.000  0.000  0.000  0.000  0.000
tot  0.578 -0.000  0.000  0.000  0.000  0.000  0.000  0.000  0.000 -0.000 -0.000 -0.000  0.000  0.000  0.000  0.000  0.578

  1  0.276  0.000 -0.000  0.000  0.000  0.000 -0.000  0.000 -0.000  0.000  0.000  0.000 -0.000  0.000  0.000  0.000  0.276
  2  0.276  0.000 -0.000  0.000  0.000  0.000 -0.000  0.000 -0.000  0.000  0.000  0.000 -0.000  0.000  0.000  0.000  0.276
  3  0.013  0.000 -0.000  0.000  0.000  0.000 -0.000  0.000 -0.000  0.000 -0.000  0.000 -0.000  0.000 -0.000  0.000  0.013
  4  0.013  0.000 -0.000  0.000  0.000  0.000 -0.000  0.000 -0.000  0.000 -0.000  0.000 -0.000  0.000  0.000  0.000  0.013
  5  0.000  0.000 -0.000  0.000  0.000  0.000  0.000 -0.000  0.000  0.000  0.000  0.000  0.000  0.000  0.000  0.000  0.000
  6  0.000  0.000 -0.000  0.000  0.000  0.000  0.000 -0.000  0.000  0.000  0.000  0.000  0.000  0.000  0.000  0.000  0.000
  7  0.000  0.000 -0.000  0.000  0.000  0.000  0.000 -0.000  0.000  0.000  0.000  0.000  0.000  0.000  0.000  0.000  0.000
  8  0.000  0.000 -0.000  0.000  0.000  0.000  0.000 -0.000  0.000  0.000  0.000  0.000  0.000  0.000  0.000  0.000  0.000
tot  0.578  0.000 -0.000  0.000  0.000  0.000  0.000  0.000  0.000  0.000 -0.000  0.000 -0.000  0.000 -0.000  0.000  0.578

 
band   7 # energy  -44.63967407 # occ.  1.00000000
 
ion      s     py     pz     px    dxy    dyz    dz2    dxz    dx2    f-3    f-2    f-1     f0     f1     f2     f3    tot
  1  0.309  0.000  0.000  0.000  0.000  0.000  0.000  0.000  0.000  0.000  0.000  0.000  0.000  0.000  0.000  0.000  0.309
  2  0.309  0.000  0.000  0.000  0.000  0.000  0.000  0.000  0.000  0.000  0.000  0.000  0.000  0.000  0.000  0.000  0.309
  3  0.192  0.000  0.000  0.000  0.000  0.000  0.000  0.000  0.000  0.000  0.000  0.000  0.000  0.000  0.000  0.000  0.192
  4  0.192  0.000  0.000  0.000  0.000  0.000  0.000  0.000  0.000  0.000  0.000  0.000  0.000  0.000  0.000  0.000  0.192
  5  0.000  0.000  0.000  0.000  0.000  0.000  0.000  0.000  0.000  0.000  0.000  0.000  0.000  0.000  0.000  0.000  0.000
  6  0.000  0.000  0.000  0.000  0.000  0.000  0.000  0.000  0.000  0.000  0.000  0.000  0.000  0.000  0.000  0.000  0.000
  7  0.000  0.000  0.000  0.000  0.000  0.000  0.000  0.000  0.000  0.000  0.000  0.000  0.000  0.000  0.000  0.000  0.000
  8  0.000  0.000  0.000  0.000  0.000  0.000  0.000  0.000  0.000  0.000  0.000  0.000  0.000  0.000  0.000  0.000  0.000
tot  1.001  0.000  0.000  0.000  0.000  0.000  0.000  0.000  0.000  0.000  0.000  0.000  0.000  0.000  0.000  0.000  1.001

  1  0.178 -0.000 -0.000 -0.000  0.000  0.000 -0.000  0.000 -0.000 -0.000  0.000 -0.000 -0.000  0.000 -0.000  0.000  0.178
  2  0.178 -0.000 -0.000 -0.000  0.000  0.000 -0.000  0.000 -0.000 -0.000  0.000 -0.000 -0.000  0.000 -0.000  0.000  0.178
  3  0.111 -0.000 -0.000 -0.000  0.000  0.000 -0.000  0.000 -0.000 -0.000  0.000 -0.000 -0.000  0.000 -0.000  0.000  0.111
  4  0.111 -0.000 -0.000 -0.000  0.000  0.000 -0.000  0.000 -0.000 -0.000  0.000 -0.000 -0.000  0.000 -0.000  0.000  0.111
  5 -0.000 -0.000 -0.000  0.000 -0.000  0.000  0.000 -0.000  0.000  0.000  0.000  0.000  0.000  0.000  0.000  0.000  0.000
  6 -0.000 -0.000 -0.000  0.000 -0.000  0.000  0.000 -0.000  0.000  0.000  0.000  0.000  0.000  0.000  0.000  0.000  0.000
  7 -0.000 -0.000 -0.000  0.000 -0.000  0.000  0.000 -0.000  0.000  0.000  0.000  0.000  0.000  0.000  0.000  0.000  0.000